Executable      : siesta
Version         : 5.2.0
Architecture    : x86_64
Compiler version: GNU-13.3.0
Compiler flags  : -march=nocona -mtune=haswell -ftree-vectorize -fPIC -fstack-protector-strong -fno-plt -O2 -ffunction-sections -pipe -isystem <prefix>/include -I<prefix>/_build_env/include -fdebug-prefix-map=<prefix>/work=/usr/local/src/conda/siesta-5.2.0 -fdebug-prefix-map=<prefix>=/usr/local/src/conda-prefix -I<prefix>/lib -fallow-argument-mismatch -O3
Parallelisations: MPI
NetCDF support
NetCDF-4 support
NetCDF-4 MPI-IO support
Lua support
Native ELPA support
ELSI support. Solvers:
   ELPA (internal) 
   NTPoly
   OMM
DFT-D3 support

Runtime information:
* Directory : /scratch/10385/ychoi9/nangman/molecular_junction/optimized
* Running on 96 nodes in parallel.
>> Start of run:  11-MAR-2025   5:28:44

                           *********************** 
                           *  WELCOME TO SIESTA  * 
                           *********************** 

 NOTE: Siesta V5 introduces some new defaults for basis-set generation
 NOTE: which might lead to slightly different numerical results.
 NOTE: Please see the manual for full details and compatibility measures.


reinit: Reading from file wave_input.fdf

reinit: -----------------------------------------------------------------------
reinit: System Name: 
reinit: -----------------------------------------------------------------------
reinit: System Label: siesta
reinit: -----------------------------------------------------------------------

initatom: Reading input for the pseudopotentials and atomic orbitals ----------
Species number:   1 Atomic number:    6 Label: C
Species number:   2 Atomic number:    1 Label: H

Ground state valence configuration (from tables):   2s02  2p02  3d00  4f00
Ground state valence configuration (from tables):   1s01  2p00  3d00  4f00

---- Processing specs for species: C
Reading pseudopotential information in PSML from:
  C.psml
PSML file version: 1.1
Using libxc ids:  101 130
GGA--PBE XC_GGA_X_PBE--XC_GGA_C_PBE pb
PSML uuid: 297821e0-be41-11e7-6802-e1ff7dfff095

---- Processing specs for species: H
Reading pseudopotential information in PSML from:
  H.psml
PSML file version: 1.1
Using libxc ids:  101 130
GGA--PBE XC_GGA_X_PBE--XC_GGA_C_PBE pb
PSML uuid: f95fa9b0-be40-11e7-634a-9594ffff953f

---- Pseudopotential check for C 

Pseudized shells:
2s( 2.00) rc: 1.20
2p( 2.00) rc: 1.26
Valence configuration for ps generation: 2s:2p: Total charge:   4.000000

---- Pseudopotential check for H 

Pseudized shells:
1s( 1.00) rc: 1.01
2p( 0.00) rc: 0.71
Valence configuration for ps generation: 1s: Total charge:   1.000000
For C, standard SIESTA heuristics set lmxkb to 3
 (one more than the basis l, including polarization orbitals).
Use PS.lmax or PS.KBprojectors blocks to override.
For H, standard SIESTA heuristics set lmxkb to 2
 (one more than the basis l, including polarization orbitals).
Use PS.lmax or PS.KBprojectors blocks to override.
C pseudopotential only contains V_ls up to l=1 -- lmxkb reset.
H pseudopotential only contains V_ls up to l=1 -- lmxkb reset.

<basis_specs>
===============================================================================
C                    Z=   6    Mass=  12.011        Charge= 0.17977+309
Lmxo=2 Lmxkb= 1    BasisType=split      Semic=F
L=0  Nsemic=0  Cnfigmx=2
          i=1  nzeta=2  polorb=0  (2s)
            splnorm:   0.15000    
               vcte:    40.000    
               rinn:  -0.90000    
               qcoe:    0.0000    
               qyuk:    0.0000    
               qwid:   0.10000E-01
                rcs:    0.0000      0.0000    
            lambdas:    1.0000      1.0000    
L=1  Nsemic=0  Cnfigmx=2
          i=1  nzeta=2  polorb=1  (2p)  (to be polarized perturbatively)
            splnorm:   0.15000    
               vcte:    40.000    
               rinn:  -0.90000    
               qcoe:    0.0000    
               qyuk:    0.0000    
               qwid:   0.10000E-01
                rcs:    0.0000      0.0000    
            lambdas:    1.0000      1.0000    
L=2  Nsemic=0  Cnfigmx=3
          i=1  nzeta=0  polorb=0  (3d)  (perturbative polarization orbital) (from 2p)
-------------------------------------------------------------------------------
L=0  Nkbl=1  erefs: 0.17977+309
L=1  Nkbl=1  erefs: 0.17977+309
===============================================================================
</basis_specs>

Using PAO.SplitTailNorm
atom: Called for C                     (Z =   6)
NOTE: C pseudopotential has channels up to l= 1
NOTE: PAOs with higher l will be generated with V_local
Maximum radius (at nrval) set to   50.00000 8518

read_vps: Pseudopotential generation method:
read_vps: ONCVPSP-3.Hamann's oncvpsp                        
Valence charge in pseudo generation:    4.00000

read_vps: Pseudopotential includes a core correction:
read_vps: Pseudo-core for xc-correction

xc_check: Exchange-correlation functional:
xc_check: GGA Perdew, Burke & Ernzerhof 1996
Got Vlocal (oncv-fit) from psml data
Choosing vlocal chloc cutoff:  4.122282
qtot up to nchloc:    4.00001153
atom: Maximum radius for chlocal:    4.12228
atom: Maximum radius for r*vlocal+2*Zval:    4.12228
Reading KB projs from C psml data
Using scalar-relativistic projectors in PSML file

PSML: Kleinman-Bylander projectors: 
   l= 0   rc=  1.219773   Ekb= 12.963096
   l= 0   rc=  1.219773   Ekb=  0.771007
   l= 1   rc=  1.278952   Ekb= -8.399923
   l= 1   rc=  1.278952   Ekb= -1.755033

PSML: Total number of  Kleinman-Bylander projectors:   8
atom: -------------------------------------------------------------------------

atom: SANKEY-TYPE ORBITALS:
atom: Selected multiple-zeta basis: split     

SPLIT: Orbitals with angular momentum L= 0

SPLIT: Basis orbitals for state 2s

SPLIT: PAO cut-off radius determined from an
SPLIT: energy shift=  0.010000 Ry
Split based on tail norm

   izeta = 1
                 lambda =    1.000000
                     rc =    4.484389
                 energy =   -0.999391
                kinetic =    0.960619
    potential(screened) =   -1.960010
       potential(ionic) =   -5.522244

   izeta = 2
                 rmatch =    3.048210
              splitnorm =    0.150000
                 energy =   -0.707280
                kinetic =    1.791893
    potential(screened) =   -2.499174
       potential(ionic) =   -6.353302

SPLIT: Orbitals with angular momentum L= 1

SPLIT: Basis orbitals for state 2p

SPLIT: PAO cut-off radius determined from an
SPLIT: energy shift=  0.010000 Ry
Split based on tail norm

   izeta = 1
                 lambda =    1.000000
                     rc =    5.435719
                 energy =   -0.377272
                kinetic =    2.513579
    potential(screened) =   -2.890851
       potential(ionic) =   -6.323663

   izeta = 2
                 rmatch =    3.691839
              splitnorm =    0.150000
                 energy =   -0.247908
                kinetic =    3.655578
    potential(screened) =   -3.903486
       potential(ionic) =   -7.669496
*Note: V_local used for l= 2

** Using vlocal for PAOs with L= 2

POLgen: Perturbative polarization orbital with L=  2

POLgen: Polarization orbital for state 2p
*Note: V_local used for lpol= 2

** Using vlocal for PAOs with L= 2
Split based on tail norm

   izeta = 1
                     rc =    5.435719
                 energy =    1.177800
                kinetic =    2.314109
    potential(screened) =   -1.136309
       potential(ionic) =   -3.992041
atom: Total number of Sankey-type orbitals: 13

atm_pop: Valence configuration (for local Pseudopot. screening):
 2s( 2.00)                                                            
 2p( 2.00)                                                            
 3d( 0.00)                                                            
Vna: chval, zval:    4.00000   4.00000

Vna:  Cut-off radius for the neutral-atom potential:   5.435719
comcore: Pseudo-core radius Rcore=  1.671741

atom: _________________________________________________________________________

<basis_specs>
===============================================================================
H                    Z=   1    Mass=  1.0080        Charge= 0.17977+309
Lmxo=1 Lmxkb= 1    BasisType=split      Semic=F
L=0  Nsemic=0  Cnfigmx=1
          i=1  nzeta=2  polorb=1  (1s)  (to be polarized perturbatively)
            splnorm:   0.15000    
               vcte:    40.000    
               rinn:  -0.90000    
               qcoe:    0.0000    
               qyuk:    0.0000    
               qwid:   0.10000E-01
                rcs:    0.0000      0.0000    
            lambdas:    1.0000      1.0000    
L=1  Nsemic=0  Cnfigmx=2
          i=1  nzeta=0  polorb=0  (2p)  (perturbative polarization orbital) (from 1s)
-------------------------------------------------------------------------------
L=0  Nkbl=1  erefs: 0.17977+309
L=1  Nkbl=1  erefs: 0.17977+309
===============================================================================
</basis_specs>

Using PAO.SplitTailNorm
atom: Called for H                     (Z =   1)
Maximum radius (at nrval) set to   50.00000 8518

read_vps: Pseudopotential generation method:
read_vps: ONCVPSP-3.Hamann's oncvpsp                        
Valence charge in pseudo generation:    1.00000

xc_check: Exchange-correlation functional:
xc_check: GGA Perdew, Burke & Ernzerhof 1996
Got Vlocal (oncv-fit) from psml data
Choosing vlocal chloc cutoff:  1.926399
qtot up to nchloc:    0.99999831
atom: Maximum radius for chlocal:    1.92640
atom: Maximum radius for r*vlocal+2*Zval:    1.92640
Reading KB projs from H psml data
Using scalar-relativistic projectors in PSML file

PSML: Kleinman-Bylander projectors: 
   l= 0   rc=  1.022342   Ekb= -3.402247
   l= 0   rc=  1.022342   Ekb= -1.068968
   l= 1   rc=  0.714575   Ekb= -1.006642

PSML: Total number of  Kleinman-Bylander projectors:   5
atom: -------------------------------------------------------------------------

atom: SANKEY-TYPE ORBITALS:
atom: Selected multiple-zeta basis: split     

SPLIT: Orbitals with angular momentum L= 0

SPLIT: Basis orbitals for state 1s

SPLIT: PAO cut-off radius determined from an
SPLIT: energy shift=  0.010000 Ry
Split based on tail norm

   izeta = 1
                 lambda =    1.000000
                     rc =    5.232664
                 energy =   -0.466081
                kinetic =    0.956761
    potential(screened) =   -1.422842
       potential(ionic) =   -1.948825

   izeta = 2
                 rmatch =    3.528949
              splitnorm =    0.150000
                 energy =   -0.298222
                kinetic =    1.742153
    potential(screened) =   -2.040375
       potential(ionic) =   -2.593332

POLgen: Perturbative polarization orbital with L=  1

POLgen: Polarization orbital for state 1s
Split based on tail norm

   izeta = 1
                     rc =    5.232664
                 energy =    0.682216
                kinetic =    1.337348
    potential(screened) =   -0.655132
       potential(ionic) =   -1.143559
atom: Total number of Sankey-type orbitals:  5

atm_pop: Valence configuration (for local Pseudopot. screening):
 1s( 1.00)                                                            
 2p( 0.00)                                                            
Vna: chval, zval:    1.00000   1.00000

Vna:  Cut-off radius for the neutral-atom potential:   5.232664

atom: _________________________________________________________________________

prinput: Basis input 

PAO.BasisType split     

%block ChemicalSpeciesLabel
    1    6 C                       # Species index, atomic number, species label
    2    1 H                       # Species index, atomic number, species label
%endblock ChemicalSpeciesLabel

%block PAO.Basis                 # Define Basis set
# WARNING: This information might be incomplete!
C                     2                    # Species label, number of l-shells
 n=2   0   2                         # n, l, Nzeta 
   4.484      3.048   
   1.000      1.000   
 n=2   1   2 P   1                   # n, l, Nzeta, Polarization, NzetaPol
   5.436      3.692   
   1.000      1.000   
H                     1                    # Species label, number of l-shells
 n=1   0   2 P   1                   # n, l, Nzeta, Polarization, NzetaPol
   5.233      3.529   
   1.000      1.000   
%endblock PAO.Basis

prinput: ----------------------------------------------------------------------

Dumping basis to NetCDF file C.ion.nc
Dumping basis to NetCDF file H.ion.nc
coor:   Atomic-coordinates input format  =     Cartesian coordinates
coor:                                          (in Angstroms)

ioxv: Reading coordinates and velocities from file
! Info in XV file prevails over previous structure input

siesta: Atomic coordinates (Bohr) and species
siesta:     46.95438  30.19165  47.32822  1        1
siesta:     45.70545  30.10165  45.62818  2        2
siesta:     45.70545  30.10165  49.02825  2        3
siesta:     48.14881  28.45347  47.32822  2        4
siesta:     48.57035  32.60608  47.32822  1        5
siesta:     49.84960  32.60288  49.01481  2        6
siesta:     49.84960  32.60288  45.64162  2        7
siesta:     46.98587  35.04786  47.32822  1        8
siesta:     45.70351  35.04870  45.64163  2        9
siesta:     45.70351  35.04870  49.01481  2       10
siesta:     48.58192  37.48135  47.32822  1       11
siesta:     49.86373  37.48039  49.01496  2       12
siesta:     49.86373  37.48039  45.64147  2       13
siesta:     46.98940  39.91758  47.32822  1       14
siesta:     45.70754  39.91667  45.64163  2       15
siesta:     45.70754  39.91667  49.01480  2       16
siesta:     48.58004  42.35481  47.32822  1       17
siesta:     49.86177  42.35617  49.01489  2       18
siesta:     49.86177  42.35617  45.64154  2       19
siesta:     46.98541  44.78969  47.32822  1       20
siesta:     45.70354  44.78909  45.64160  2       21
siesta:     45.70354  44.78909  49.01483  2       22
siesta:     48.57741  47.22623  47.32821  1       23
siesta:     49.85921  47.22623  49.01484  2       24
siesta:     49.85921  47.22623  45.64159  2       25
siesta:     46.98463  49.66216  47.32822  1       26
siesta:     45.70283  49.66215  45.64159  2       27
siesta:     45.70283  49.66215  49.01484  2       28
siesta:     48.57664  52.09870  47.32821  1       29
siesta:     49.85850  52.09929  49.01483  2       30
siesta:     49.85850  52.09929  45.64160  2       31
siesta:     46.98200  54.53358  47.32822  1       32
siesta:     45.70027  54.53221  45.64154  2       33
siesta:     45.70027  54.53221  49.01489  2       34
siesta:     48.57265  56.97081  47.32822  1       35
siesta:     49.85451  56.97172  49.01480  2       36
siesta:     49.85451  56.97172  45.64163  2       37
siesta:     46.98012  59.40704  47.32822  1       38
siesta:     45.69832  59.40799  45.64147  2       39
siesta:     45.69832  59.40799  49.01496  2       40
siesta:     48.57618  61.84052  47.32822  1       41
siesta:     49.85853  61.83969  49.01481  2       42
siesta:     49.85853  61.83969  45.64163  2       43
siesta:     46.99169  64.28231  47.32822  1       44
siesta:     45.71244  64.28550  45.64162  2       45
siesta:     45.71244  64.28550  49.01481  2       46
siesta:     48.60766  66.69674  47.32822  1       47
siesta:     49.85659  66.78674  49.02825  2       48
siesta:     49.85659  66.78674  45.62818  2       49
siesta:     47.41324  68.43492  47.32822  2       50

siesta: System type = molecule  

initatomlists: Number of atoms, orbitals, and projectors:     50   378   298

siesta: ******************** Simulation parameters ****************************
siesta:
siesta: The following are some of the parameters of the simulation.
siesta: A complete list of the parameters used, including default values,
siesta: can be found in file out.fdf
siesta:
redata: Spin configuration                          = none
redata: Number of spin components                   = 1
redata: Time-Reversal Symmetry                      = T
redata: Spin spiral                                 = F
redata: Long output                                 =   F
redata: Number of Atomic Species                    =        2
redata: Charge density info will appear in .RHO file
redata: Write Mulliken charges (when)               = none
redata: Write Mulliken Pop.                         = NO
redata: Write Hirshfeld charges (when)              = none
redata: Write Voronoi charges (when)                = none
redata: Write spin charge (when)                    = none
redata: Matel table size (NRTAB)                    =     1024
redata: Mesh Cutoff                                 =   500.0000 Ry
redata: Net charge of the system                    =     0.0000 |e|
redata: Min. number of SCF Iter                     =        0
redata: Max. number of SCF Iter                     =     1500
redata: SCF convergence failure will abort job
redata: SCF mix quantity                            = Hamiltonian
redata: Mix DM or H after convergence               =   F
redata: Recompute H after scf cycle                 =   F
redata: Mix DM in first SCF step                    =   F
redata: Write Pulay info on disk                    =   F
redata: New DM Occupancy tolerance                  = 0.000000000001
redata: No kicks to SCF
redata: DM Mixing Weight for Kicks                  =     0.5000
redata: Require Harris convergence for SCF          =   F
redata: Harris energy tolerance for SCF             =     0.000100 eV
redata: Require DM convergence for SCF              =   T
redata: DM tolerance for SCF                        =     0.000000
redata: Require EDM convergence for SCF             =   F
redata: EDM tolerance for SCF                       =     0.001000 eV
redata: Require H convergence for SCF               =   T
redata: Hamiltonian tolerance for SCF               =     0.001000 eV
redata: Require (free) Energy convergence for SCF   =   F
redata: (free) Energy tolerance for SCF             =     0.000100 eV
redata: Using DFT-D3 dispersion                     =   F
redata: Using Saved Data (generic)                  =   F
redata: Use continuation files for DM               =   T
redata: Neglect nonoverlap interactions             =   F
redata: Method of Calculation                       = Diagonalization
redata: Electronic Temperature                      =   300.0000 K
redata: Fix the spin of the system                  =   F
redata: Max. number of TDED Iter                    =        1
redata: Number of TDED substeps                     =        3
redata: Dynamics option                             = Broyden coord. optimization
redata: Variable cell                               =   T
redata: Maximum number of optimization moves        =     1500
redata: Force tolerance                             =     0.0010 eV/Ang
redata: Stress tolerance                            =     1.0000 GPa
mix.SCF: Pulay mixing                            = Pulay
mix.SCF:    Variant                              = stable
mix.SCF:    History steps                        = 15
mix.SCF:    Linear mixing weight                 =     0.200000
mix.SCF:    Mixing weight                        =     0.200000
mix.SCF:    SVD condition                        = 0.1000E-07
redata: Save all siesta data in one NC              =   F
redata: ***********************************************************************

%block SCF.Mixers
  Pulay
%endblock SCF.Mixers

%block SCF.Mixer.Pulay
  # Mixing method
  method pulay
  variant stable

  # Mixing options
  weight 0.2000
  weight.linear 0.2000
  history 15
%endblock SCF.Mixer.Pulay

DM_history_depth set to one: no extrapolation allowed by default for geometry relaxation
Size of DM history Fstack: 1
Total number of electrons:    98.000000
Total ionic charge:    98.000000

* ProcessorY, Blocksize:   12   3


* Orbital distribution balance (max,min):     6     3

 Kpoints in:            1 . Kpoints trimmed:            1

siesta: k-grid: Number of k-points = 1
siesta: k-points from Monkhorst-Pack grid
siesta: k-cutoff (effective) =    25.045 Ang
siesta: k-point supercell and displacements
siesta: k-grid:     1     0     0      0.000
siesta: k-grid:     0     1     0      0.000
siesta: k-grid:     0     0     1      0.000

diag: Algorithm                                     = D&C
diag: Parallel over k                               =   F
diag: Use parallel 2D distribution                  =   T
diag: Parallel block-size                           = 3
diag: Parallel distribution                         =     8 x    12
diag: Used triangular part                          = Lower
diag: Absolute tolerance                            =  0.100E-15
diag: Orthogonalization factor                      =  0.100E-05
diag: Memory factor                                 =  1.0000
Using current reciprocal lattice vectors for BandLinesScale
Beware any cell changes by the end of the run
Using current reciprocal lattice vectors for WaveFuncKPointsScale
Beware any cell changes by the end of the run

siesta: Constraint (stress):
   0.0000E+00   0.0000E+00
   0.0000E+00   0.1000E+01
   0.1000E+01   0.1000E+01


ts: **************************************************************
ts: Save H and S matrices                           =    F
ts: Save DM and EDM matrices                        =    F
ts: Only save the overlap matrix S                  =    F
ts: **************************************************************

************************ Begin: TS CHECKS AND WARNINGS ************************
************************ End: TS CHECKS AND WARNINGS **************************


                     ====================================
                        Begin Broyden opt. move =      0
                     ====================================

outcoor: Atomic coordinates (Ang):                          
   24.84718794   15.97673413   25.04501283   1       1  C
   24.18628403   15.92910521   24.14539522   2       2  H
   24.18628404   15.92910522   25.94463044   2       3  H
   25.47925176   15.05692552   25.04501283   2       4  H
   25.70232484   17.25439513   25.04501283   1       5  C
   26.37927169   17.25270275   25.93752036   2       6  H
   26.37927171   17.25270275   24.15250530   2       7  H
   24.86384959   18.54653082   25.04501282   1       8  C
   24.18525582   18.54697402   24.15250782   2       9  H
   24.18525582   18.54697402   25.93751781   2      10  H
   25.70844541   19.83427558   25.04501282   1      11  C
   26.38674709   19.83377013   25.93759795   2      12  H
   26.38674709   19.83377014   24.15242768   2      13  H
   24.86571759   21.12347125   25.04501283   1      14  C
   24.18738638   21.12299185   24.15251029   2      15  H
   24.18738638   21.12299184   25.93751536   2      16  H
   25.70744991   22.41319768   25.04501282   1      17  C
   26.38571468   22.41392133   25.93756139   2      18  H
   26.38571468   22.41392133   24.15246427   2      19  H
   24.86360567   23.70168449   25.04501283   1      20  C
   24.18527191   23.70136818   24.15249409   2      21  H
   24.18527191   23.70136818   25.93753155   2      22  H
   25.70606071   24.99104253   25.04501281   1      23  C
   26.38435957   24.99104629   25.93753786   2      24  H
   26.38435957   24.99104629   24.15248780   2      25  H
   24.86319470   26.28008415   25.04501284   1      26  C
   24.18489584   26.28008039   24.15248779   2      27  H
   24.18489583   26.28008040   25.93753784   2      28  H
   25.70564976   27.56944219   25.04501281   1      29  C
   26.38398351   27.56975849   25.93753157   2      30  H
   26.38398350   27.56975849   24.15249410   2      31  H
   24.86180550   28.85792900   25.04501283   1      32  C
   24.18354075   28.85720534   24.15246426   2      33  H
   24.18354074   28.85720534   25.93756138   2      34  H
   25.70353784   30.14765543   25.04501283   1      35  C
   26.38186903   30.14813484   25.93751536   2      36  H
   26.38186904   30.14813484   24.15251031   2      37  H
   24.86081000   31.43685110   25.04501283   1      38  C
   24.18250832   31.43735655   24.15242770   2      39  H
   24.18250832   31.43735655   25.93759796   2      40  H
   25.70540583   32.72459586   25.04501283   1      41  C
   26.38399960   32.72415266   25.93751782   2      42  H
   26.38399959   32.72415265   24.15250783   2      43  H
   24.86693057   34.01673154   25.04501283   1      44  C
   24.18998371   34.01842393   24.15250530   2      45  H
   24.18998371   34.01842392   25.93752036   2      46  H
   25.72206748   35.29439254   25.04501282   1      47  C
   26.38297138   35.34202146   25.94463043   2      48  H
   26.38297137   35.34202146   24.14539521   2      49  H
   25.09000365   36.21420116   25.04501282   2      50  H

outcell: Unit cell vectors (Ang):
       50.569255    0.000000    0.000000
        0.000000   51.271127    0.000000
        0.000000    0.000000   50.090026

outcell: Cell vector modules (Ang)   :   50.569255   51.271127   50.090026
outcell: Cell angles (23,13,12) (deg):     90.0000     90.0000     90.0000
outcell: Cell volume (Ang**3)        : 129870.5484
<dSpData1D:S at geom step 0
  <sparsity:sparsity for geom step 0
    nrows_g=378 nrows=6 sparsity=.0062 nnzs=886, refcount: 7>
  <dData1D:(new from dSpData1D) n=886, refcount: 1>
refcount: 1>
new_DM -- step:     1
Initializing Density Matrix...

Attempting to read DM from file... Succeeded...
DM from file:
<dSpData2D:IO-DM: siesta.DM
  <sparsity:IO-DM: siesta.DM
    nrows_g=378 nrows=6 sparsity=.0062 nnzs=886, refcount: 1>
  <dData2D:(new from dSpData2D) n=886 m=1, refcount: 1>
refcount: 1>
DM to be used:
<dSpData2D:Re-structured SpM
  <sparsity:sparsity for geom step 0
    nrows_g=378 nrows=6 sparsity=.0062 nnzs=886, refcount: 8>
  <dData2D:(new in restruct) n=886 m=1, refcount: 1>
refcount: 1>
No. of atoms with KB's overlaping orbs in proc 0. Max # of overlaps:      25     109

InitMesh: MESH = 720 x 720 x 720 = 373248000
InitMesh: Mesh cutoff (required, used) =   500.000   545.031 Ry
New grid distribution [1]: sub = 2
New grid distribution [2]: sub = 2
New grid distribution [3]: sub = 2
Setting up quadratic distribution...

stepf: Methfessel-Paxton step function
       Using Hermite-Gauss polynomials of order  1

siesta: Program's energy decomposition (eV):
siesta: Ebs     =     -1101.905633
siesta: Eions   =      5566.776444
siesta: Ena     =      1679.002937
siesta: Ekin    =      2286.747413
siesta: Enl     =      -177.332473
siesta: Eso     =         0.000000
siesta: Edftu   =         0.000000
siesta: DEna    =      -142.283988
siesta: DUscf   =        14.059756
siesta: DUext   =         0.000000
siesta: Ex      =     -1153.363848
siesta: Ec      =      -104.985847
siesta: Exc     =     -1258.349695
siesta: EbV     =         0.000000
siesta: eta*DQ  =         0.000000
siesta: Emadel  =         0.000000
siesta: Emeta   =         0.000000
siesta: Emolmec =         0.000000
siesta: Ekinion =         0.000000
siesta: Eharris =     -3164.932496
siesta: Etot    =     -3164.932496
siesta: FreeEng =     -3164.932496

        iscf     Eharris(eV)        E_KS(eV)     FreeEng(eV)     dDmax    Ef(eV) dHmax(eV)
   scf:    1    -3164.932496    -3164.932496    -3164.932496  0.000000 -5.642246  0.000000

SCF Convergence by DM+H criterion
max |DM_out - DM_in|         :     0.0000000000
max |H_out - H_in|      (eV) :     0.0000000000
SCF cycle converged after 1 iterations
timer: Routine,Calls,Time,% = IterSCF        1       5.267  32.73

Using DM_out to compute the final energy and forces
No. of atoms with KB's overlaping orbs in proc 0. Max # of overlaps:      25     109

siesta: E_KS(eV) =            -3164.9325

siesta: E_KS - E_eggbox =     -3164.9325

siesta: Atomic forces (eV/Ang):
     1    0.000400    0.000362   -0.000000
     2    0.000639    0.000056    0.000020
     3    0.000639    0.000056   -0.000020
     4    0.000478    0.000362    0.000000
     5    0.000040    0.000323   -0.000000
     6   -0.000031    0.000473    0.000042
     7   -0.000032    0.000473   -0.000041
     8   -0.000371   -0.000161   -0.000000
     9   -0.000484   -0.000590    0.000095
    10   -0.000484   -0.000590   -0.000095
    11   -0.000904   -0.000095   -0.000000
    12   -0.000903   -0.000354    0.000042
    13   -0.000903   -0.000354   -0.000042
    14   -0.000192    0.000122   -0.000000
    15   -0.000214    0.000533   -0.000003
    16   -0.000214    0.000534    0.000003
    17    0.000269   -0.000294    0.000001
    18    0.000297   -0.000701   -0.000040
    19    0.000298   -0.000701    0.000039
    20    0.000764   -0.000146   -0.000001
    21    0.000759   -0.000328    0.000047
    22    0.000759   -0.000327   -0.000047
    23    0.000165    0.000128    0.000001
    24    0.000144    0.000384   -0.000036
    25    0.000144    0.000384    0.000035
    26   -0.000164   -0.000128   -0.000001
    27   -0.000144   -0.000384    0.000036
    28   -0.000144   -0.000384   -0.000035
    29   -0.000765    0.000145    0.000001
    30   -0.000759    0.000328   -0.000048
    31   -0.000758    0.000328    0.000046
    32   -0.000268    0.000294   -0.000000
    33   -0.000298    0.000701    0.000039
    34   -0.000298    0.000701   -0.000039
    35    0.000191   -0.000122    0.000000
    36    0.000215   -0.000534    0.000003
    37    0.000215   -0.000534   -0.000003
    38    0.000904    0.000095    0.000000
    39    0.000903    0.000354   -0.000042
    40    0.000903    0.000354    0.000042
    41    0.000370    0.000161   -0.000000
    42    0.000484    0.000590   -0.000095
    43    0.000484    0.000590    0.000095
    44   -0.000040   -0.000323   -0.000000
    45    0.000032   -0.000474   -0.000042
    46    0.000032   -0.000473    0.000041
    47   -0.000401   -0.000362    0.000000
    48   -0.000639   -0.000056   -0.000020
    49   -0.000639   -0.000056    0.000020
    50   -0.000478   -0.000362   -0.000000
----------------------------------------
   Tot   -0.000000   -0.000000    0.000000
----------------------------------------
   Max    0.000904
   Res    0.000374    sqrt( Sum f_i^2 / 3N )
----------------------------------------
   Max    0.000904    constrained

Stress tensor Voigt[x,y,z,yz,xz,xy] (kbar):       -0.00       -0.00       -0.00       -0.00        0.00        0.00
(Free)E + p*V (eV/cell)    -3164.9309
Target enthalpy (eV/cell)    -3164.9325

siesta: Stress tensor (static) (eV/Ang**3):
        -0.000000    0.000000    0.000000
         0.000000   -0.000000   -0.000000
         0.000000   -0.000000   -0.000000

siesta: Pressure (static):          0.00002001  kBar

siesta: Stress tensor (total) (eV/Ang**3):
        -0.000000    0.000000    0.000000
         0.000000   -0.000000   -0.000000
         0.000000   -0.000000   -0.000000

siesta: Pressure (total):          0.00002001  kBar

Broyden_optim: max_history for broyden:   5
Broyden_optim: cycle on maxit: T
Broyden_optim: initial inverse jacobian:   1.0000

Broyden_optim: No of elements:    156

Broyden_optim: No target stress found, assuming hydrostatic MD.TargetPressure.

Broyden_optim: Target stress (kBar)
Broyden_optim:        -0.000       0.000       0.000
Broyden_optim:         0.000      -0.000       0.000
Broyden_optim:         0.000       0.000      -0.000

outcoor: Relaxed atomic coordinates (Ang):                  
   24.84718794   15.97673413   25.04501283   1       1  C
   24.18628403   15.92910521   24.14539522   2       2  H
   24.18628404   15.92910522   25.94463044   2       3  H
   25.47925176   15.05692552   25.04501283   2       4  H
   25.70232484   17.25439513   25.04501283   1       5  C
   26.37927169   17.25270275   25.93752036   2       6  H
   26.37927171   17.25270275   24.15250530   2       7  H
   24.86384959   18.54653082   25.04501282   1       8  C
   24.18525582   18.54697402   24.15250782   2       9  H
   24.18525582   18.54697402   25.93751781   2      10  H
   25.70844541   19.83427558   25.04501282   1      11  C
   26.38674709   19.83377013   25.93759795   2      12  H
   26.38674709   19.83377014   24.15242768   2      13  H
   24.86571759   21.12347125   25.04501283   1      14  C
   24.18738638   21.12299185   24.15251029   2      15  H
   24.18738638   21.12299184   25.93751536   2      16  H
   25.70744991   22.41319768   25.04501282   1      17  C
   26.38571468   22.41392133   25.93756139   2      18  H
   26.38571468   22.41392133   24.15246427   2      19  H
   24.86360567   23.70168449   25.04501283   1      20  C
   24.18527191   23.70136818   24.15249409   2      21  H
   24.18527191   23.70136818   25.93753155   2      22  H
   25.70606071   24.99104253   25.04501281   1      23  C
   26.38435957   24.99104629   25.93753786   2      24  H
   26.38435957   24.99104629   24.15248780   2      25  H
   24.86319470   26.28008415   25.04501284   1      26  C
   24.18489584   26.28008039   24.15248779   2      27  H
   24.18489583   26.28008040   25.93753784   2      28  H
   25.70564976   27.56944219   25.04501281   1      29  C
   26.38398351   27.56975849   25.93753157   2      30  H
   26.38398350   27.56975849   24.15249410   2      31  H
   24.86180550   28.85792900   25.04501283   1      32  C
   24.18354075   28.85720534   24.15246426   2      33  H
   24.18354074   28.85720534   25.93756138   2      34  H
   25.70353784   30.14765543   25.04501283   1      35  C
   26.38186903   30.14813484   25.93751536   2      36  H
   26.38186904   30.14813484   24.15251031   2      37  H
   24.86081000   31.43685110   25.04501283   1      38  C
   24.18250832   31.43735655   24.15242770   2      39  H
   24.18250832   31.43735655   25.93759796   2      40  H
   25.70540583   32.72459586   25.04501283   1      41  C
   26.38399960   32.72415266   25.93751782   2      42  H
   26.38399959   32.72415265   24.15250783   2      43  H
   24.86693057   34.01673154   25.04501283   1      44  C
   24.18998371   34.01842393   24.15250530   2      45  H
   24.18998371   34.01842392   25.93752036   2      46  H
   25.72206748   35.29439254   25.04501282   1      47  C
   26.38297138   35.34202146   25.94463043   2      48  H
   26.38297137   35.34202146   24.14539521   2      49  H
   25.09000365   36.21420116   25.04501282   2      50  H

outcell: Unit cell vectors (Ang):
       50.569255    0.000000    0.000000
        0.000000   51.271127    0.000000
        0.000000    0.000000   50.090026

outcell: Cell vector modules (Ang)   :   50.569255   51.271127   50.090026
outcell: Cell angles (23,13,12) (deg):     90.0000     90.0000     90.0000
outcell: Cell volume (Ang**3)        : 129870.5484
Writing WFSX for selected k-points in siesta.selected.WFSX

writewave: Wave Functions Coefficients

     Number of k-points =        1
        Number of Spins =        1
   Number of basis orbs =      378


diag: Algorithm                                     = D&C
diag: Parallel over k                               =   F
diag: Use parallel 2D distribution                  =   T
diag: Parallel block-size                           = 3
diag: Parallel distribution                         =     8 x    12
diag: Used triangular part                          = Lower
diag: Absolute tolerance                            =  0.100E-15
diag: Orthogonalization factor                      =  0.100E-05
diag: Memory factor                                 =  1.0000

diag: Algorithm                                     = D&C
diag: Parallel over k                               =   F
diag: Use parallel 2D distribution                  =   T
diag: Parallel block-size                           = 3
diag: Parallel distribution                         =     8 x    12
diag: Used triangular part                          = Lower
diag: Absolute tolerance                            =  0.100E-15
diag: Orthogonalization factor                      =  0.100E-05
diag: Memory factor                                 =  1.0000

            k-point =        1    0.000000  0.000000  0.000000
     Spin component =        1
 Num. wavefunctions =        2
Use readwfsx utility to print wavefunction coefficients from WFSX file
Computing bands...
Writing WFSX for bands in siesta.bands.WFSX

diag: Algorithm                                     = D&C
diag: Parallel over k                               =   F
diag: Use parallel 2D distribution                  =   T
diag: Parallel block-size                           = 3
diag: Parallel distribution                         =     8 x    12
diag: Used triangular part                          = Lower
diag: Absolute tolerance                            =  0.100E-15
diag: Orthogonalization factor                      =  0.100E-05
diag: Memory factor                                 =  1.0000

            k-point =        1    0.000000  0.000000  0.000000
     Spin component =        1
 Num. wavefunctions =      378
Use readwfsx utility to print wavefunction coefficients from WFSX file

siesta: Eigenvalues (eV):
  ik is       eps
   1  1  -19.8215  -19.6543  -19.3731  -18.9830  -18.4891  -17.8992  -17.2222  -16.4759  -15.6880  -14.9045
         -14.2121  -13.8189  -13.7475  -13.7304  -13.5974  -13.5634  -11.5806  -11.4259  -11.1692  -10.8208
  -10.3940  -10.3638  -10.2500  -10.1428   -9.9075   -9.7875   -9.6827   -9.3850   -9.2758   -8.9216
   -8.8592   -8.7792   -8.3683   -8.3275   -8.0968   -7.9488   -7.9230   -7.7282   -7.6273   -7.5614
   -7.4841   -7.4421   -7.4162   -7.3116   -7.3008   -7.2727   -7.2671   -7.2454   -6.7053    1.8367
    1.9061    1.9989    2.1040    2.1623    2.2587    2.3645    2.4048    2.5280    2.6211    2.7013
    2.9520    2.9702    3.1576    3.4249    3.4930    3.6931    3.7216    3.8678    4.1033    4.1922
    4.1969    4.3031    4.3128    4.3157    4.4100    4.4588    4.5388    4.5428    4.6534    4.7295
    4.7669    4.7922    4.8249    4.8777    4.8798    4.9219    4.9378    5.2119    5.4621    5.5526
    5.7951    6.1780    6.2001    6.3573    6.5286    6.6213    6.9386    7.5764    7.5928    7.7860
    7.8126    7.8910    8.0280    8.2079    8.4282    8.4722    8.5528    8.6295    8.6319    8.6694
    8.7054    8.7295    9.0934    9.2430    9.5181    9.5299    9.7243    9.9698   10.0142   10.0416
   10.2113   10.4334   10.4947   10.5206   10.6042   10.9556   11.3807   11.6860   11.9842   12.1120
   12.6069   13.0764   13.5495   13.8813   14.2432   14.5738   14.5816   14.7213   14.8765   14.9533
   15.0648   15.2047   15.2505   15.3131   15.3380   15.3957   15.3967   15.4765   15.5245   15.5287
   15.7154   15.7749   15.7750   15.8373   16.0357   16.0456   16.0522   16.0617   16.1821   16.2914
   16.3710   16.5846   16.6567   16.6997   16.8280   17.0053   17.0579   17.2798   17.6269   17.6329
   17.7507   17.7684   17.8830   17.9204   18.0413   18.0745   18.0797   18.0816   18.1481   18.1523
   18.2490   18.3444   18.4944   19.0737   19.2096   19.2676   19.9523   20.0830   20.1884   20.2096
   20.5717   20.6505   20.7661   20.8600   20.9003   21.0176   21.0794   21.5495   22.3028   22.8845
   23.1982   23.4601   24.3513   24.9445   25.5649   25.6526   25.7733   25.8995   26.1300   26.1693
   26.9309   27.2731   27.7650   28.2053   28.9921   29.0240   29.0439   29.2748   29.4508   29.6056
   29.6382   29.7581   30.2308   30.4379   30.4460   30.8361   30.8600   31.0201   31.5532   32.1813
   32.2504   32.7282   33.0827   33.0836   33.1085   33.3235   33.5457   33.5700   33.8043   34.2122
   34.3157   34.6060   34.9857   35.7510   36.5840   37.4409   37.8792   38.0117   38.1813   38.2842
   38.2874   38.2968   38.7190   38.8347   39.4144   39.4339   39.6104   39.6551   39.7005   39.7699
   39.8416   39.9041   39.9920   40.2368   40.3501   40.3512   40.5994   40.7240   40.9054   41.2040
   41.2919   41.3635   41.4335   41.5162   41.6967   41.7431   42.0267   42.3810   42.3948   42.4237
   42.4331   42.4678   42.5619   42.6872   42.7403   42.8585   42.9553   43.0338   43.0456   43.5093
   43.7159   44.3987   44.4610   44.8044   45.5571   45.6700   46.0756   46.1917   46.6535   47.0333
   47.0672   47.2362   47.4437   47.5990   47.6415   47.7869   47.9963   48.6158   48.6388   48.6740
   49.1895   49.2417   49.4850   49.9172   50.6472   51.5655   51.8821   52.1378   53.0344   53.9313
   54.0614   54.3545   54.7183   55.8270   55.8999   56.3704   56.3963   56.6630   56.9389   57.4454
   57.6673   58.4056   58.4277   58.9370   59.4468   59.4995   60.5436   60.6051   61.5658   61.8058
   62.0149   62.0328   62.0848   62.7390   62.8241   63.1345   63.4550   63.5015   63.8500   64.4052
   64.8463   65.5031   65.9352   66.7414   66.9812   67.2131   67.2226   67.7526   68.3660   68.3693
   69.4705   69.6019   69.8026   70.3130   70.4986   70.5374   71.4963   72.4654   73.1450   73.9656
   74.3462   74.3796   78.7893   79.2323   86.3560   86.5180   94.2598   94.4281
siesta: Fermi energy =      -5.642246 eV

siesta: Program's energy decomposition (eV):
siesta: Ebs     =     -1101.905633
siesta: Eions   =      5566.776444
siesta: Ena     =      1679.002937
siesta: Ekin    =      2286.747413
siesta: Enl     =      -177.332473
siesta: Eso     =         0.000000
siesta: Edftu   =         0.000000
siesta: DEna    =      -142.283988
siesta: DUscf   =        14.059756
siesta: DUext   =         0.000000
siesta: Ex      =     -1153.363848
siesta: Ec      =      -104.985847
siesta: Exc     =     -1258.349695
siesta: EbV     =         0.000000
siesta: eta*DQ  =         0.000000
siesta: Emadel  =         0.000000
siesta: Emeta   =         0.000000
siesta: Emolmec =         0.000000
siesta: Ekinion =         0.000000
siesta: Eharris =     -3164.932496
siesta: Etot    =     -3164.932496
siesta: FreeEng =     -3164.932496

siesta: Final energy (eV):
siesta:  Band Struct. =   -1101.905633
siesta:       Kinetic =    2286.747413
siesta:       Hartree =   13817.168825
siesta:         Edftu =       0.000000
siesta:       Eso     =       0.000000
siesta:    Ext. field =       0.000000
siesta:         Exch. =   -1153.363848
siesta:         Corr. =    -104.985847
siesta:     Bulk bias =       0.000000
siesta:   Exch.-corr. =   -1258.349695
siesta:  Ion-electron =  -29582.628829
siesta:       Ion-ion =   11572.129791
siesta:       Ekinion =       0.000000
siesta: D3 dispersion =       0.000000
siesta:         Total =   -3164.932496
siesta:         Fermi =      -5.642246

siesta: Stress tensor (static) (eV/Ang**3):
siesta:    -0.000000    0.000000    0.000000
siesta:     0.000000   -0.000000   -0.000000
siesta:     0.000000   -0.000000   -0.000000

siesta: Constrained stress tensor (static) (eV/Ang**3):
siesta:    -0.000000    0.000000    0.000000
siesta:     0.000000   -0.000000    0.000000
siesta:     0.000000    0.000000   -0.000000

siesta: Cell volume =     129870.548384 Ang**3

siesta: Pressure (static):
siesta:                Solid            Molecule  Units
siesta:           0.00000000          0.00000000  Ry/Bohr**3
siesta:           0.00000001          0.00000005  eV/Ang**3
siesta:           0.00002001          0.00007804  kBar
(Free)E+ p_basis*V_orbitals  =       -3150.150483
(Free)Eharris+ p_basis*V_orbitals  =       -3150.150483

siesta: Electric dipole (a.u.)  =    0.000000   -0.000000   -0.000000
siesta: Electric dipole (Debye) =    0.000000   -0.000000   -0.000000

cite: Please see "siesta.bib" for an exhaustive BiBTeX file.
cite: Please clearly indicate Siesta version in published work: 5.2.0
cite: This calculation has made use of the following articles
cite: which are encouraged to be cited in a published work.
        Primary SIESTA paper
          DOI: www.doi.org/10.1088/0953-8984/14/11/302


>> End of run:  11-MAR-2025   5:29:07
Job completed
